;;
;; Generated by CHARMM-GUI FF-Converter
;;
;; Correspondance:
;; jul316@lehigh.edu or wonpil@lehigh.edu
;;
;; GROMACS topology file for LIG
;;


[ moleculetype ]
; name	nrexcl
LIG	     3

[ atoms ]
; nr	type	resnr	residu	atom	cgnr	charge	mass
     1      CG331      1      LIG     C1      1    -0.264000     5.9630   ; qtot -0.264
     2      CG311      1      LIG     C2      2    -0.084000     9.9950   ; qtot -0.348
     3      CG331      1      LIG     C3      3    -0.264000     5.9630   ; qtot -0.612
     4     CG2R61      1      LIG     C4      4    -0.005000    12.0110   ; qtot -0.617
     5     CG2R61      1      LIG     C5      5    -0.097000     9.9950   ; qtot -0.714
     6     CG2R61      1      LIG     C6      6     0.017000    12.0110   ; qtot -0.697
     7      CLGR1      1      LIG     CL      7    -0.167000    35.4530   ; qtot -0.864
     8     CG2R61      1      LIG     C7      8     0.268000    12.0110   ; qtot -0.596
     9      OG301      1      LIG     O1      9    -0.313000    15.9994   ; qtot -0.909
    10      CG331      1      LIG     C8     10    -0.094000     5.9630   ; qtot -1.003
    11     CG2R61      1      LIG     C9     11    -0.116000    12.0110   ; qtot -1.119
    12      CG2O1      1      LIG    C10     12     0.317000    12.0110   ; qtot -0.802
    13      OG2D1      1      LIG     O2     13    -0.467000    15.9994   ; qtot -1.269
    14      NG2S1      1      LIG     N1     14    -0.344000    11.9910   ; qtot -1.613
    15      CG321      1      LIG    C11     15    -0.006000     7.9790   ; qtot -1.619
    16     CG3C51      1      LIG    C12     16    -0.139000     9.9950   ; qtot -1.758
    17     CG3C52      1      LIG    C13     17    -0.144000     7.9790   ; qtot -1.902
    18     CG3C52      1      LIG    C14     18    -0.193000     7.9790   ; qtot -2.095
    19     CG3C52      1      LIG    C15     19    -0.058000     7.9790   ; qtot -2.153
    20     NG3C51      1      LIG     N2     20    -0.354000    14.0070   ; qtot -2.507
    21      CG321      1      LIG    C16     21     0.031000     7.9790   ; qtot -2.476
    22      CG331      1      LIG    C17     22    -0.260000     5.9630   ; qtot -2.736
    23     CG2R61      1      LIG    C18     23     0.213000    12.0110   ; qtot -2.523
    24      OG311      1      LIG     O3     24    -0.569000    13.9834   ; qtot -3.092
    25       HGA3      1      LIG     H1     25     0.090000     3.0240   ; qtot -3.002
    26       HGA3      1      LIG     H2     26     0.090000     3.0240   ; qtot -2.912
    27       HGA3      1      LIG     H3     27     0.090000     3.0240   ; qtot -2.822
    28       HGA1      1      LIG     H4     28     0.090000     3.0240   ; qtot -2.732
    29       HGA3      1      LIG     H5     29     0.090000     3.0240   ; qtot -2.642
    30       HGA3      1      LIG     H6     30     0.090000     3.0240   ; qtot -2.552
    31       HGA3      1      LIG     H7     31     0.090000     3.0240   ; qtot -2.462
    32      HGR62      1      LIG     H8     32     0.142000     3.0240   ; qtot -2.320
    33       HGA3      1      LIG     H9     33     0.090000     3.0240   ; qtot -2.230
    34       HGA3      1      LIG    H10     34     0.090000     3.0240   ; qtot -2.140
    35       HGA3      1      LIG    H11     35     0.090000     3.0240   ; qtot -2.050
    36       HGP1      1      LIG    H12     36     0.298000     3.0240   ; qtot -1.752
    37       HGA2      1      LIG    H13     37     0.090000     3.0240   ; qtot -1.662
    38       HGA2      1      LIG    H14     38     0.090000     3.0240   ; qtot -1.572
    39       HGA1      1      LIG    H15     39     0.111000     3.0240   ; qtot -1.461
    40       HGA2      1      LIG    H16     40     0.090000     3.0240   ; qtot -1.371
    41       HGA2      1      LIG    H17     41     0.090000     3.0240   ; qtot -1.281
    42       HGA2      1      LIG    H18     42     0.090000     3.0240   ; qtot -1.191
    43       HGA2      1      LIG    H19     43     0.090000     3.0240   ; qtot -1.101
    44       HGA2      1      LIG    H20     44     0.090000     3.0240   ; qtot -1.011
    45       HGA2      1      LIG    H21     45     0.090000     3.0240   ; qtot -0.921
    46       HGA2      1      LIG    H22     46     0.090000     3.0240   ; qtot -0.831
    47       HGA2      1      LIG    H23     47     0.090000     3.0240   ; qtot -0.741
    48       HGA3      1      LIG    H24     48     0.090000     3.0240   ; qtot -0.651
    49       HGA3      1      LIG    H25     49     0.090000     3.0240   ; qtot -0.561
    50       HGA3      1      LIG    H26     50     0.090000     3.0240   ; qtot -0.471
    51       HGP1      1      LIG    H27     51     0.421000     3.0240   ; qtot -0.050
    52        LPH      1      LIG    LP1     52     0.050000     0.0000   ; qtot -0.000

[ bonds ]
; ai	aj	funct	b0	Kb
    1     2     1
    1    25     1
    1    26     1
    1    27     1
    2     3     1
    2     4     1
    2    28     1
    3    29     1
    3    30     1
    3    31     1
    4     5     1
    4    23     1
    5     6     1
    5    32     1
    6     7     1
    6     8     1
    8     9     1
    8    11     1
    9    10     1
   10    33     1
   10    34     1
   10    35     1
   11    12     1
   11    23     1
   12    13     1
   12    14     1
   14    15     1
   14    36     1
   16    15     1
   15    37     1
   15    38     1
   16    17     1
   16    20     1
   16    39     1
   17    18     1
   17    40     1
   17    41     1
   18    19     1
   18    42     1
   18    43     1
   19    20     1
   19    44     1
   19    45     1
   20    21     1
   21    22     1
   21    46     1
   21    47     1
   22    48     1
   22    49     1
   22    50     1
   23    24     1
   24    51     1

[ pairs ]
; ai	aj	funct	c6	c12 or
; ai	aj	funct	fudgeQQ	q1	q2	c6	c12
    1     5     1
    1    23     1
    1    29     1
    1    30     1
    1    31     1
    2     6     1
    2    11     1
    2    24     1
    2    32     1
    3     5     1
    3    23     1
    3    25     1
    3    26     1
    3    27     1
    4     7     1
    4     8     1
    4    12     1
    4    25     1
    4    26     1
    4    27     1
    4    29     1
    4    30     1
    4    31     1
    4    51     1
    4    52     1
    5     9     1
    5    11     1
    5    24     1
    5    28     1
    6    10     1
    6    12     1
    6    23     1
    7     9     1
    7    11     1
    7    32     1
    8    13     1
    8    14     1
    8    24     1
    8    32     1
    8    33     1
    8    34     1
    8    35     1
    9    12     1
    9    23     1
    9    52     1
   10    11     1
   11    15     1
   11    36     1
   11    51     1
   11    52     1
   12    16     1
   12    24     1
   12    37     1
   12    38     1
   13    15     1
   13    23     1
   13    36     1
   14    17     1
   14    20     1
   14    23     1
   14    39     1
   15    18     1
   15    19     1
   15    21     1
   15    40     1
   15    41     1
   16    22     1
   16    36     1
   16    42     1
   16    43     1
   16    44     1
   16    45     1
   16    46     1
   16    47     1
   17    21     1
   17    37     1
   17    38     1
   17    44     1
   17    45     1
   18    21     1
   18    39     1
   19    22     1
   19    39     1
   19    40     1
   19    41     1
   19    46     1
   19    47     1
   20    37     1
   20    38     1
   20    40     1
   20    41     1
   20    42     1
   20    43     1
   20    48     1
   20    49     1
   20    50     1
   21    39     1
   21    44     1
   21    45     1
   23    28     1
   23    32     1
   25    28     1
   26    28     1
   27    28     1
   28    29     1
   28    30     1
   28    31     1
   32    52     1
   36    37     1
   36    38     1
   37    39     1
   38    39     1
   39    40     1
   39    41     1
   40    42     1
   40    43     1
   41    42     1
   41    43     1
   42    44     1
   42    45     1
   43    44     1
   43    45     1
   46    48     1
   46    49     1
   46    50     1
   47    48     1
   47    49     1
   47    50     1

[ angles ] 
; ai	aj	ak	funct	th0	cth	S0	Kub
    2     1    25     5
    2     1    26     5
    2     1    27     5
   25     1    26     5
   25     1    27     5
   26     1    27     5
    1     2     3     5
    1     2     4     5
    1     2    28     5
    3     2     4     5
    3     2    28     5
    4     2    28     5
    2     3    29     5
    2     3    30     5
    2     3    31     5
   29     3    30     5
   29     3    31     5
   30     3    31     5
    2     4     5     5
    2     4    23     5
    5     4    23     5
    4     5     6     5
    4     5    32     5
    6     5    32     5
    5     6     7     5
    5     6     8     5
    7     6     8     5
    6     8     9     5
    6     8    11     5
    9     8    11     5
    8     9    10     5
    9    10    33     5
    9    10    34     5
    9    10    35     5
   33    10    34     5
   33    10    35     5
   34    10    35     5
    8    11    12     5
    8    11    23     5
   12    11    23     5
   11    12    13     5
   11    12    14     5
   13    12    14     5
   12    14    15     5
   12    14    36     5
   15    14    36     5
   14    15    16     5
   14    15    37     5
   14    15    38     5
   16    15    37     5
   16    15    38     5
   37    15    38     5
   15    16    17     5
   15    16    20     5
   15    16    39     5
   17    16    20     5
   17    16    39     5
   20    16    39     5
   16    17    18     5
   16    17    40     5
   16    17    41     5
   18    17    40     5
   18    17    41     5
   40    17    41     5
   17    18    19     5
   17    18    42     5
   17    18    43     5
   19    18    42     5
   19    18    43     5
   42    18    43     5
   18    19    20     5
   18    19    44     5
   18    19    45     5
   20    19    44     5
   20    19    45     5
   44    19    45     5
   16    20    19     5
   16    20    21     5
   19    20    21     5
   20    21    22     5
   20    21    46     5
   20    21    47     5
   22    21    46     5
   22    21    47     5
   46    21    47     5
   21    22    48     5
   21    22    49     5
   21    22    50     5
   48    22    49     5
   48    22    50     5
   49    22    50     5
    4    23    11     5
    4    23    24     5
   11    23    24     5
   23    24    51     5

[ dihedrals ]
; ai	aj	ak	al	funct	phi0	cp	mult
   25     1     2    28     9
   26     1     2    28     9
   27     1     2    28     9
    3     2     1    25     9
    3     2     1    26     9
    3     2     1    27     9
    4     2     1    25     9
    4     2     1    26     9
    4     2     1    27     9
    1     2     3    29     9
    1     2     3    30     9
    1     2     3    31     9
    4     2     3    29     9
    4     2     3    30     9
    4     2     3    31     9
   28     2     3    29     9
   28     2     3    30     9
   28     2     3    31     9
    1     2     4     5     9
    1     2     4    23     9
    3     2     4     5     9
    3     2     4    23     9
    5     4     2    28     9
   23     4     2    28     9
    2     4     5     6     9
    2     4     5    32     9
   23     4     5    32     9
    2     4    23    11     9
    2     4    23    24     9
    5     4    23    11     9
    5     4    23    24     9
    6     5     4    23     9
    4     5     6     7     9
    4     5     6     8     9
    7     6     5    32     9
    8     6     5    32     9
    5     6     8     9     9
    5     6     8    11     9
    7     6     8     9     9
    7     6     8    11     9
    6     8     9    10     9
    6     8    11    12     9
    6     8    11    23     9
    9     8    11    12     9
    9     8    11    23     9
   10     9     8    11     9
    8     9    10    33     9
    8     9    10    34     9
    8     9    10    35     9
    8    11    12    13     9
    8    11    12    14     9
    8    11    23    24     9
   12    11    23    24     9
   13    12    11    23     9
   14    12    11    23     9
   11    12    14    15     9
   11    12    14    36     9
   13    12    14    15     9
   13    12    14    36     9
   12    14    15    16     9
   12    14    15    37     9
   12    14    15    38     9
   36    14    15    37     9
   36    14    15    38     9
   16    15    14    36     9
   14    15    16    17     9
   14    15    16    20     9
   14    15    16    39     9
   37    15    16    39     9
   38    15    16    39     9
   17    16    15    37     9
   17    16    15    38     9
   20    16    15    37     9
   20    16    15    38     9
   15    16    17    18     9
   15    16    17    40     9
   15    16    17    41     9
   20    16    17    40     9
   20    16    17    41     9
   39    16    17    40     9
   39    16    17    41     9
   15    16    20    19     9
   15    16    20    21     9
   17    16    20    19     9
   17    16    20    21     9
   18    17    16    20     9
   18    17    16    39     9
   16    17    18    19     9
   16    17    18    42     9
   16    17    18    43     9
   40    17    18    42     9
   40    17    18    43     9
   41    17    18    42     9
   41    17    18    43     9
   19    18    17    40     9
   19    18    17    41     9
   17    18    19    20     9
   17    18    19    44     9
   17    18    19    45     9
   42    18    19    44     9
   42    18    19    45     9
   43    18    19    44     9
   43    18    19    45     9
   20    19    18    42     9
   20    19    18    43     9
   18    19    20    21     9
   19    20    16    39     9
   21    20    16    39     9
   16    20    19    18     9
   16    20    19    44     9
   16    20    19    45     9
   21    20    19    44     9
   21    20    19    45     9
   16    20    21    22     9
   16    20    21    46     9
   16    20    21    47     9
   19    20    21    22     9
   19    20    21    46     9
   19    20    21    47     9
   20    21    22    48     9
   20    21    22    49     9
   20    21    22    50     9
   46    21    22    48     9
   46    21    22    49     9
   46    21    22    50     9
   47    21    22    48     9
   47    21    22    49     9
   47    21    22    50     9
    4    23    11     8     9
    4    23    11    12     9
    4    23    24    51     9
   11    23    24    51     9

[ dihedrals ]
; ai	aj	ak	al	funct	q0	cq
   12    11    14    13     2

[ virtual_sites3 ]
; Site   from               funct theta d
   52     7     6     5     3   180.00    0.164

[ exclusions ]
;   ai    aj
   52     7     1
   52     6     1
   52     5     1
   52     4     1
   52    32     1
   52     8     1
   52     9     1
   52    11     1

#ifdef POSRES
[ position_restraints ]
    1     1    POSRES_FC_BB    POSRES_FC_BB    POSRES_FC_BB   
    2     1    POSRES_FC_BB    POSRES_FC_BB    POSRES_FC_BB   
    3     1    POSRES_FC_BB    POSRES_FC_BB    POSRES_FC_BB   
    4     1    POSRES_FC_BB    POSRES_FC_BB    POSRES_FC_BB   
    5     1    POSRES_FC_BB    POSRES_FC_BB    POSRES_FC_BB   
    6     1    POSRES_FC_BB    POSRES_FC_BB    POSRES_FC_BB   
    7     1    POSRES_FC_BB    POSRES_FC_BB    POSRES_FC_BB   
    8     1    POSRES_FC_BB    POSRES_FC_BB    POSRES_FC_BB   
    9     1    POSRES_FC_BB    POSRES_FC_BB    POSRES_FC_BB   
   10     1    POSRES_FC_BB    POSRES_FC_BB    POSRES_FC_BB   
   11     1    POSRES_FC_BB    POSRES_FC_BB    POSRES_FC_BB   
   12     1    POSRES_FC_BB    POSRES_FC_BB    POSRES_FC_BB   
   13     1    POSRES_FC_BB    POSRES_FC_BB    POSRES_FC_BB   
   14     1    POSRES_FC_BB    POSRES_FC_BB    POSRES_FC_BB   
   15     1    POSRES_FC_BB    POSRES_FC_BB    POSRES_FC_BB   
   16     1    POSRES_FC_BB    POSRES_FC_BB    POSRES_FC_BB   
   17     1    POSRES_FC_BB    POSRES_FC_BB    POSRES_FC_BB   
   18     1    POSRES_FC_BB    POSRES_FC_BB    POSRES_FC_BB   
   19     1    POSRES_FC_BB    POSRES_FC_BB    POSRES_FC_BB   
   20     1    POSRES_FC_BB    POSRES_FC_BB    POSRES_FC_BB   
   21     1    POSRES_FC_BB    POSRES_FC_BB    POSRES_FC_BB   
   22     1    POSRES_FC_BB    POSRES_FC_BB    POSRES_FC_BB   
   23     1    POSRES_FC_BB    POSRES_FC_BB    POSRES_FC_BB   
   24     1    POSRES_FC_BB    POSRES_FC_BB    POSRES_FC_BB   
#endif
